 896
Lattice =" 0.41067E+02  -0.41963E-01    0.000  -0.46687E+00   0.40666E+02    0.000    1.000    0.000    0.000  " Properties=pos:R:3 Time=      0
Ar  -0.38415E+00   0.40659E+02   0.50000E+00
Ar   0.80002E+00   0.13359E+01   0.50000E+00
Ar   0.14827E+00   0.27496E+01   0.50000E+00
Ar   0.79536E+00   0.39957E+01   0.50000E+00
Ar  -0.30388E-02   0.52497E+01   0.50000E+00
Ar   0.85896E+00   0.65085E+01   0.50000E+00
Ar   0.17797E+00   0.77603E+01   0.50000E+00
Ar   0.80454E+00   0.90137E+01   0.50000E+00
Ar   0.91619E-01   0.10251E+02   0.50000E+00
Ar   0.78380E+00   0.11402E+02   0.50000E+00
Ar  -0.60764E-01   0.12723E+02   0.50000E+00
Ar   0.45589E+00   0.14049E+02   0.50000E+00
Ar  -0.17558E+00   0.15311E+02   0.50000E+00
Ar   0.50644E+00   0.16632E+02   0.50000E+00
Ar  -0.15286E+00   0.17907E+02   0.50000E+00
Ar   0.62851E+00   0.19208E+02   0.50000E+00
Ar   0.10326E+00   0.20415E+02   0.50000E+00
Ar   0.61143E+00   0.21729E+02   0.50000E+00
Ar  -0.19856E+00   0.22988E+02   0.50000E+00
Ar   0.60434E+00   0.24200E+02   0.50000E+00
Ar  -0.10899E+00   0.25430E+02   0.50000E+00
Ar   0.75670E+00   0.26753E+02   0.50000E+00
Ar  -0.14361E+00   0.27844E+02   0.50000E+00
Ar   0.39632E+00   0.29077E+02   0.50000E+00
Ar  -0.34079E+00   0.30382E+02   0.50000E+00
Ar   0.36334E+00   0.31623E+02   0.50000E+00
Ar   0.40575E+02   0.32851E+02   0.50000E+00
Ar   0.29501E+00   0.34237E+02   0.50000E+00
Ar  -0.40792E+00   0.35559E+02   0.50000E+00
Ar   0.35620E+00   0.36888E+02   0.50000E+00
Ar  -0.36055E+00   0.38261E+02   0.50000E+00
Ar   0.46683E+00   0.39487E+02   0.50000E+00
Ar   0.17082E+01   0.66260E-01   0.50000E+00
Ar   0.24018E+01   0.12985E+01   0.50000E+00
Ar   0.16045E+01   0.25866E+01   0.50000E+00
Ar   0.21791E+01   0.37253E+01   0.50000E+00
Ar   0.14632E+01   0.52149E+01   0.50000E+00
Ar   0.23295E+01   0.63448E+01   0.50000E+00
Ar   0.16497E+01   0.77919E+01   0.50000E+00
Ar   0.23345E+01   0.90744E+01   0.50000E+00
Ar   0.15074E+01   0.10340E+02   0.50000E+00
Ar   0.21552E+01   0.11616E+02   0.50000E+00
Ar   0.14423E+01   0.12826E+02   0.50000E+00
Ar   0.20676E+01   0.14091E+02   0.50000E+00
Ar   0.13087E+01   0.15368E+02   0.50000E+00
Ar   0.19936E+01   0.16450E+02   0.50000E+00
Ar   0.13636E+01   0.17741E+02   0.50000E+00
Ar   0.21140E+01   0.19117E+02   0.50000E+00
Ar   0.15125E+01   0.20418E+02   0.50000E+00
Ar   0.21615E+01   0.21798E+02   0.50000E+00
Ar   0.14275E+01   0.22956E+02   0.50000E+00
Ar   0.20726E+01   0.24168E+02   0.50000E+00
Ar   0.14123E+01   0.25487E+02   0.50000E+00
Ar   0.21212E+01   0.26784E+02   0.50000E+00
Ar   0.13555E+01   0.28107E+02   0.50000E+00
Ar   0.18750E+01   0.29256E+02   0.50000E+00
Ar   0.11003E+01   0.30401E+02   0.50000E+00
Ar   0.18222E+01   0.31757E+02   0.50000E+00
Ar   0.10524E+01   0.32980E+02   0.50000E+00
Ar   0.17932E+01   0.34225E+02   0.50000E+00
Ar   0.10590E+01   0.35592E+02   0.50000E+00
Ar   0.18126E+01   0.36908E+02   0.50000E+00
Ar   0.10393E+01   0.38150E+02   0.50000E+00
Ar   0.18037E+01   0.39367E+02   0.50000E+00
Ar   0.31491E+01   0.23205E+00   0.50000E+00
Ar   0.40041E+01   0.14000E+01   0.50000E+00
Ar   0.31135E+01   0.25902E+01   0.50000E+00
Ar   0.37260E+01   0.37927E+01   0.50000E+00
Ar   0.28656E+01   0.49920E+01   0.50000E+00
Ar   0.34340E+01   0.63077E+01   0.50000E+00
Ar   0.29845E+01   0.77285E+01   0.50000E+00
Ar   0.35325E+01   0.89820E+01   0.50000E+00
Ar   0.29169E+01   0.10309E+02   0.50000E+00
Ar   0.35638E+01   0.11621E+02   0.50000E+00
Ar   0.29172E+01   0.12889E+02   0.50000E+00
Ar   0.35760E+01   0.14035E+02   0.50000E+00
Ar   0.28002E+01   0.15239E+02   0.50000E+00
Ar   0.35069E+01   0.16541E+02   0.50000E+00
Ar   0.29084E+01   0.17726E+02   0.50000E+00
Ar   0.35900E+01   0.19012E+02   0.50000E+00
Ar   0.29627E+01   0.20450E+02   0.50000E+00
Ar   0.35981E+01   0.21680E+02   0.50000E+00
Ar   0.28578E+01   0.23017E+02   0.50000E+00
Ar   0.36610E+01   0.24345E+02   0.50000E+00
Ar   0.27506E+01   0.25608E+02   0.50000E+00
Ar   0.35169E+01   0.26882E+02   0.50000E+00
Ar   0.27847E+01   0.28100E+02   0.50000E+00
Ar   0.33799E+01   0.29491E+02   0.50000E+00
Ar   0.25920E+01   0.30692E+02   0.50000E+00
Ar   0.33065E+01   0.31878E+02   0.50000E+00
Ar   0.25522E+01   0.33044E+02   0.50000E+00
Ar   0.33515E+01   0.34338E+02   0.50000E+00
Ar   0.25592E+01   0.35554E+02   0.50000E+00
Ar   0.32510E+01   0.36932E+02   0.50000E+00
Ar   0.25401E+01   0.38171E+02   0.50000E+00
Ar   0.32894E+01   0.39534E+02   0.50000E+00
Ar   0.46508E+01   0.10522E+00   0.50000E+00
Ar   0.53853E+01   0.13245E+01   0.50000E+00
Ar   0.45655E+01   0.25061E+01   0.50000E+00
Ar   0.52107E+01   0.38760E+01   0.50000E+00
Ar   0.44262E+01   0.51037E+01   0.50000E+00
Ar   0.50042E+01   0.63799E+01   0.50000E+00
Ar   0.42806E+01   0.77584E+01   0.50000E+00
Ar   0.51041E+01   0.89734E+01   0.50000E+00
Ar   0.42809E+01   0.10326E+02   0.50000E+00
Ar   0.50937E+01   0.11591E+02   0.50000E+00
Ar   0.44669E+01   0.12712E+02   0.50000E+00
Ar   0.50418E+01   0.14155E+02   0.50000E+00
Ar   0.43914E+01   0.15434E+02   0.50000E+00
Ar   0.50195E+01   0.16760E+02   0.50000E+00
Ar   0.43447E+01   0.18040E+02   0.50000E+00
Ar   0.53795E+01   0.19564E+02   0.50000E+00
Ar   0.43602E+01   0.20331E+02   0.50000E+00
Ar   0.49760E+01   0.21718E+02   0.50000E+00
Ar   0.43172E+01   0.23006E+02   0.50000E+00
Ar   0.51121E+01   0.24235E+02   0.50000E+00
Ar   0.43536E+01   0.25641E+02   0.50000E+00
Ar   0.50177E+01   0.26913E+02   0.50000E+00
Ar   0.42152E+01   0.28237E+02   0.50000E+00
Ar   0.50070E+01   0.29503E+02   0.50000E+00
Ar   0.41874E+01   0.30868E+02   0.50000E+00
Ar   0.48700E+01   0.32021E+02   0.50000E+00
Ar   0.41613E+01   0.33122E+02   0.50000E+00
Ar   0.46897E+01   0.34308E+02   0.50000E+00
Ar   0.39666E+01   0.35614E+02   0.50000E+00
Ar   0.46941E+01   0.36960E+02   0.50000E+00
Ar   0.38682E+01   0.38292E+02   0.50000E+00
Ar   0.46859E+01   0.39523E+02   0.50000E+00
Ar   0.61101E+01   0.76080E-01   0.50000E+00
Ar   0.67668E+01   0.13986E+01   0.50000E+00
Ar   0.59374E+01   0.26599E+01   0.50000E+00
Ar   0.65702E+01   0.40198E+01   0.50000E+00
Ar   0.59349E+01   0.51609E+01   0.50000E+00
Ar   0.65310E+01   0.64610E+01   0.50000E+00
Ar   0.57717E+01   0.77667E+01   0.50000E+00
Ar   0.65403E+01   0.89800E+01   0.50000E+00
Ar   0.57444E+01   0.10276E+02   0.50000E+00
Ar   0.66359E+01   0.11507E+02   0.50000E+00
Ar   0.58800E+01   0.12851E+02   0.50000E+00
Ar   0.65840E+01   0.14165E+02   0.50000E+00
Ar   0.57163E+01   0.15422E+02   0.50000E+00
Ar   0.64581E+01   0.16611E+02   0.50000E+00
Ar   0.58068E+01   0.17990E+02   0.50000E+00
Ar   0.65168E+01   0.19280E+02   0.50000E+00
Ar   0.57382E+01   0.20569E+02   0.50000E+00
Ar   0.64505E+01   0.21819E+02   0.50000E+00
Ar   0.56587E+01   0.22961E+02   0.50000E+00
Ar   0.65327E+01   0.24321E+02   0.50000E+00
Ar   0.57440E+01   0.25608E+02   0.50000E+00
Ar   0.65113E+01   0.26997E+02   0.50000E+00
Ar   0.57132E+01   0.28212E+02   0.50000E+00
Ar   0.64451E+01   0.29415E+02   0.50000E+00
Ar   0.55832E+01   0.30709E+02   0.50000E+00
Ar   0.63747E+01   0.31894E+02   0.50000E+00
Ar   0.56823E+01   0.33046E+02   0.50000E+00
Ar   0.61868E+01   0.34369E+02   0.50000E+00
Ar   0.53705E+01   0.35578E+02   0.50000E+00
Ar   0.59254E+01   0.36985E+02   0.50000E+00
Ar   0.52937E+01   0.38268E+02   0.50000E+00
Ar   0.62021E+01   0.39402E+02   0.50000E+00
Ar   0.75942E+01   0.72265E-01   0.50000E+00
Ar   0.80930E+01   0.14264E+01   0.50000E+00
Ar   0.74773E+01   0.27029E+01   0.50000E+00
Ar   0.81180E+01   0.40037E+01   0.50000E+00
Ar   0.73019E+01   0.53123E+01   0.50000E+00
Ar   0.80504E+01   0.65200E+01   0.50000E+00
Ar   0.72924E+01   0.77651E+01   0.50000E+00
Ar   0.80713E+01   0.89674E+01   0.50000E+00
Ar   0.73986E+01   0.10200E+02   0.50000E+00
Ar   0.80525E+01   0.11508E+02   0.50000E+00
Ar   0.73185E+01   0.12857E+02   0.50000E+00
Ar   0.80129E+01   0.14103E+02   0.50000E+00
Ar   0.72493E+01   0.15395E+02   0.50000E+00
Ar   0.79508E+01   0.16654E+02   0.50000E+00
Ar   0.72560E+01   0.17978E+02   0.50000E+00
Ar   0.79887E+01   0.19169E+02   0.50000E+00
Ar   0.71530E+01   0.20447E+02   0.50000E+00
Ar   0.79687E+01   0.21594E+02   0.50000E+00
Ar   0.72054E+01   0.22968E+02   0.50000E+00
Ar   0.79498E+01   0.24216E+02   0.50000E+00
Ar   0.73123E+01   0.25583E+02   0.50000E+00
Ar   0.78161E+01   0.26834E+02   0.50000E+00
Ar   0.72273E+01   0.28129E+02   0.50000E+00
Ar   0.77314E+01   0.29222E+02   0.50000E+00
Ar   0.70302E+01   0.30524E+02   0.50000E+00
Ar   0.78046E+01   0.31793E+02   0.50000E+00
Ar   0.71276E+01   0.33048E+02   0.50000E+00
Ar   0.77959E+01   0.34295E+02   0.50000E+00
Ar   0.69286E+01   0.35847E+02   0.50000E+00
Ar   0.74454E+01   0.36899E+02   0.50000E+00
Ar   0.66358E+01   0.38104E+02   0.50000E+00
Ar   0.75660E+01   0.39235E+02   0.50000E+00
Ar   0.82164E+01   0.40617E+02   0.50000E+00
Ar   0.96390E+01   0.12636E+01   0.50000E+00
Ar   0.88082E+01   0.26795E+01   0.50000E+00
Ar   0.95364E+01   0.39053E+01   0.50000E+00
Ar   0.89980E+01   0.51706E+01   0.50000E+00
Ar   0.96391E+01   0.64900E+01   0.50000E+00
Ar   0.88257E+01   0.77550E+01   0.50000E+00
Ar   0.95241E+01   0.89694E+01   0.50000E+00
Ar   0.88368E+01   0.10204E+02   0.50000E+00
Ar   0.96114E+01   0.11520E+02   0.50000E+00
Ar   0.87288E+01   0.12722E+02   0.50000E+00
Ar   0.93750E+01   0.14122E+02   0.50000E+00
Ar   0.85562E+01   0.15354E+02   0.50000E+00
Ar   0.94475E+01   0.16622E+02   0.50000E+00
Ar   0.87396E+01   0.17808E+02   0.50000E+00
Ar   0.94178E+01   0.19140E+02   0.50000E+00
Ar   0.88408E+01   0.20503E+02   0.50000E+00
Ar   0.93779E+01   0.21585E+02   0.50000E+00
Ar   0.86746E+01   0.22907E+02   0.50000E+00
Ar   0.94082E+01   0.24207E+02   0.50000E+00
Ar   0.87730E+01   0.25725E+02   0.50000E+00
Ar   0.93599E+01   0.26814E+02   0.50000E+00
Ar   0.85270E+01   0.27969E+02   0.50000E+00
Ar   0.93221E+01   0.29270E+02   0.50000E+00
Ar   0.84823E+01   0.30531E+02   0.50000E+00
Ar   0.93330E+01   0.31863E+02   0.50000E+00
Ar   0.85888E+01   0.33044E+02   0.50000E+00
Ar   0.92938E+01   0.34351E+02   0.50000E+00
Ar   0.84049E+01   0.35545E+02   0.50000E+00
Ar   0.90338E+01   0.36718E+02   0.50000E+00
Ar   0.81505E+01   0.38087E+02   0.50000E+00
Ar   0.90123E+01   0.39340E+02   0.50000E+00
Ar   0.96564E+01   0.40583E+02   0.50000E+00
Ar   0.11045E+02   0.11779E+01   0.50000E+00
Ar   0.10249E+02   0.24958E+01   0.50000E+00
Ar   0.10982E+02   0.38289E+01   0.50000E+00
Ar   0.10416E+02   0.51488E+01   0.50000E+00
Ar   0.11098E+02   0.64735E+01   0.50000E+00
Ar   0.10378E+02   0.77227E+01   0.50000E+00
Ar   0.11052E+02   0.89817E+01   0.50000E+00
Ar   0.10368E+02   0.10262E+02   0.50000E+00
Ar   0.11032E+02   0.11533E+02   0.50000E+00
Ar   0.10167E+02   0.12881E+02   0.50000E+00
Ar   0.10765E+02   0.14049E+02   0.50000E+00
Ar   0.99667E+01   0.15309E+02   0.50000E+00
Ar   0.10738E+02   0.16516E+02   0.50000E+00
Ar   0.10179E+02   0.17887E+02   0.50000E+00
Ar   0.10830E+02   0.19147E+02   0.50000E+00
Ar   0.10120E+02   0.20492E+02   0.50000E+00
Ar   0.10831E+02   0.21664E+02   0.50000E+00
Ar   0.10093E+02   0.22969E+02   0.50000E+00
Ar   0.10934E+02   0.24324E+02   0.50000E+00
Ar   0.10230E+02   0.25517E+02   0.50000E+00
Ar   0.10842E+02   0.26835E+02   0.50000E+00
Ar   0.10043E+02   0.28013E+02   0.50000E+00
Ar   0.10798E+02   0.29340E+02   0.50000E+00
Ar   0.10054E+02   0.30584E+02   0.50000E+00
Ar   0.10755E+02   0.31836E+02   0.50000E+00
Ar   0.10047E+02   0.33151E+02   0.50000E+00
Ar   0.10825E+02   0.34347E+02   0.50000E+00
Ar   0.98405E+01   0.35564E+02   0.50000E+00
Ar   0.10428E+02   0.36817E+02   0.50000E+00
Ar   0.96217E+01   0.38012E+02   0.50000E+00
Ar   0.10650E+02   0.39389E+02   0.50000E+00
Ar   0.11815E+02   0.32271E-01   0.50000E+00
Ar   0.12596E+02   0.12999E+01   0.50000E+00
Ar   0.11669E+02   0.25201E+01   0.50000E+00
Ar   0.12461E+02   0.38940E+01   0.50000E+00
Ar   0.11832E+02   0.51840E+01   0.50000E+00
Ar   0.12577E+02   0.65341E+01   0.50000E+00
Ar   0.11754E+02   0.77909E+01   0.50000E+00
Ar   0.12469E+02   0.90358E+01   0.50000E+00
Ar   0.11879E+02   0.10243E+02   0.50000E+00
Ar   0.12461E+02   0.11589E+02   0.50000E+00
Ar   0.11656E+02   0.12919E+02   0.50000E+00
Ar   0.12337E+02   0.14017E+02   0.50000E+00
Ar   0.11492E+02   0.15275E+02   0.50000E+00
Ar   0.12216E+02   0.16564E+02   0.50000E+00
Ar   0.11536E+02   0.17804E+02   0.50000E+00
Ar   0.12229E+02   0.19034E+02   0.50000E+00
Ar   0.11604E+02   0.20389E+02   0.50000E+00
Ar   0.12305E+02   0.21710E+02   0.50000E+00
Ar   0.11652E+02   0.23016E+02   0.50000E+00
Ar   0.12355E+02   0.24237E+02   0.50000E+00
Ar   0.11656E+02   0.25622E+02   0.50000E+00
Ar   0.12441E+02   0.26825E+02   0.50000E+00
Ar   0.11358E+02   0.28003E+02   0.50000E+00
Ar   0.12215E+02   0.29175E+02   0.50000E+00
Ar   0.11495E+02   0.30523E+02   0.50000E+00
Ar   0.12186E+02   0.31821E+02   0.50000E+00
Ar   0.11500E+02   0.33063E+02   0.50000E+00
Ar   0.12070E+02   0.34325E+02   0.50000E+00
Ar   0.11326E+02   0.35538E+02   0.50000E+00
Ar   0.12051E+02   0.36862E+02   0.50000E+00
Ar   0.11050E+02   0.38067E+02   0.50000E+00
Ar   0.12183E+02   0.39604E+02   0.50000E+00
Ar   0.13466E+02   0.10041E+00   0.50000E+00
Ar   0.14084E+02   0.14735E+01   0.50000E+00
Ar   0.13166E+02   0.26871E+01   0.50000E+00
Ar   0.13925E+02   0.39160E+01   0.50000E+00
Ar   0.13329E+02   0.50784E+01   0.50000E+00
Ar   0.13940E+02   0.64466E+01   0.50000E+00
Ar   0.13418E+02   0.78434E+01   0.50000E+00
Ar   0.13953E+02   0.90470E+01   0.50000E+00
Ar   0.13260E+02   0.10285E+02   0.50000E+00
Ar   0.14061E+02   0.11523E+02   0.50000E+00
Ar   0.13181E+02   0.12809E+02   0.50000E+00
Ar   0.13893E+02   0.14108E+02   0.50000E+00
Ar   0.13038E+02   0.15383E+02   0.50000E+00
Ar   0.13716E+02   0.16565E+02   0.50000E+00
Ar   0.12912E+02   0.17836E+02   0.50000E+00
Ar   0.13778E+02   0.19110E+02   0.50000E+00
Ar   0.12918E+02   0.20349E+02   0.50000E+00
Ar   0.13826E+02   0.21624E+02   0.50000E+00
Ar   0.13107E+02   0.22809E+02   0.50000E+00
Ar   0.13808E+02   0.24213E+02   0.50000E+00
Ar   0.13155E+02   0.25470E+02   0.50000E+00
Ar   0.13882E+02   0.26717E+02   0.50000E+00
Ar   0.12968E+02   0.27883E+02   0.50000E+00
Ar   0.13629E+02   0.29231E+02   0.50000E+00
Ar   0.13004E+02   0.30496E+02   0.50000E+00
Ar   0.13710E+02   0.31871E+02   0.50000E+00
Ar   0.12972E+02   0.33101E+02   0.50000E+00
Ar   0.13630E+02   0.34367E+02   0.50000E+00
Ar   0.12830E+02   0.35657E+02   0.50000E+00
Ar   0.13644E+02   0.36925E+02   0.50000E+00
Ar   0.12809E+02   0.38205E+02   0.50000E+00
Ar   0.13595E+02   0.39523E+02   0.50000E+00
Ar   0.14802E+02   0.18996E+00   0.50000E+00
Ar   0.15665E+02   0.15491E+01   0.50000E+00
Ar   0.14667E+02   0.26347E+01   0.50000E+00
Ar   0.15462E+02   0.39566E+01   0.50000E+00
Ar   0.14734E+02   0.51192E+01   0.50000E+00
Ar   0.15497E+02   0.64025E+01   0.50000E+00
Ar   0.14838E+02   0.77794E+01   0.50000E+00
Ar   0.15378E+02   0.90937E+01   0.50000E+00
Ar   0.14680E+02   0.10324E+02   0.50000E+00
Ar   0.15453E+02   0.11583E+02   0.50000E+00
Ar   0.14772E+02   0.12693E+02   0.50000E+00
Ar   0.15431E+02   0.13959E+02   0.50000E+00
Ar   0.14532E+02   0.15293E+02   0.50000E+00
Ar   0.15219E+02   0.16526E+02   0.50000E+00
Ar   0.14432E+02   0.17797E+02   0.50000E+00
Ar   0.15149E+02   0.19072E+02   0.50000E+00
Ar   0.14399E+02   0.20424E+02   0.50000E+00
Ar   0.15200E+02   0.21616E+02   0.50000E+00
Ar   0.14577E+02   0.22877E+02   0.50000E+00
Ar   0.15382E+02   0.24296E+02   0.50000E+00
Ar   0.14620E+02   0.25568E+02   0.50000E+00
Ar   0.15408E+02   0.26782E+02   0.50000E+00
Ar   0.14469E+02   0.27968E+02   0.50000E+00
Ar   0.15218E+02   0.29280E+02   0.50000E+00
Ar   0.14518E+02   0.30550E+02   0.50000E+00
Ar   0.15233E+02   0.31789E+02   0.50000E+00
Ar   0.14485E+02   0.33161E+02   0.50000E+00
Ar   0.15110E+02   0.34428E+02   0.50000E+00
Ar   0.14396E+02   0.35605E+02   0.50000E+00
Ar   0.15204E+02   0.36985E+02   0.50000E+00
Ar   0.14385E+02   0.38288E+02   0.50000E+00
Ar   0.15145E+02   0.39679E+02   0.50000E+00
Ar   0.16325E+02   0.24758E+00   0.50000E+00
Ar   0.17091E+02   0.15805E+01   0.50000E+00
Ar   0.16306E+02   0.28005E+01   0.50000E+00
Ar   0.16937E+02   0.40576E+01   0.50000E+00
Ar   0.16223E+02   0.51589E+01   0.50000E+00
Ar   0.16860E+02   0.65122E+01   0.50000E+00
Ar   0.16183E+02   0.78616E+01   0.50000E+00
Ar   0.16819E+02   0.91471E+01   0.50000E+00
Ar   0.16118E+02   0.10388E+02   0.50000E+00
Ar   0.16990E+02   0.11519E+02   0.50000E+00
Ar   0.16028E+02   0.12979E+02   0.50000E+00
Ar   0.16890E+02   0.14064E+02   0.50000E+00
Ar   0.16053E+02   0.15378E+02   0.50000E+00
Ar   0.16695E+02   0.16657E+02   0.50000E+00
Ar   0.15988E+02   0.17755E+02   0.50000E+00
Ar   0.16748E+02   0.19077E+02   0.50000E+00
Ar   0.15969E+02   0.20376E+02   0.50000E+00
Ar   0.16684E+02   0.21684E+02   0.50000E+00
Ar   0.15940E+02   0.22891E+02   0.50000E+00
Ar   0.16855E+02   0.24231E+02   0.50000E+00
Ar   0.16171E+02   0.25591E+02   0.50000E+00
Ar   0.16762E+02   0.26844E+02   0.50000E+00
Ar   0.15920E+02   0.28076E+02   0.50000E+00
Ar   0.16759E+02   0.29417E+02   0.50000E+00
Ar   0.15929E+02   0.30504E+02   0.50000E+00
Ar   0.16725E+02   0.31780E+02   0.50000E+00
Ar   0.15870E+02   0.32985E+02   0.50000E+00
Ar   0.16584E+02   0.34312E+02   0.50000E+00
Ar   0.15853E+02   0.35587E+02   0.50000E+00
Ar   0.16518E+02   0.36929E+02   0.50000E+00
Ar   0.15877E+02   0.38333E+02   0.50000E+00
Ar   0.16708E+02   0.39629E+02   0.50000E+00
Ar   0.17849E+02   0.27608E+00   0.50000E+00
Ar   0.18618E+02   0.14731E+01   0.50000E+00
Ar   0.17809E+02   0.28829E+01   0.50000E+00
Ar   0.18612E+02   0.41464E+01   0.50000E+00
Ar   0.17734E+02   0.52397E+01   0.50000E+00
Ar   0.18428E+02   0.65409E+01   0.50000E+00
Ar   0.17641E+02   0.77671E+01   0.50000E+00
Ar   0.18347E+02   0.90175E+01   0.50000E+00
Ar   0.17669E+02   0.10244E+02   0.50000E+00
Ar   0.18420E+02   0.11518E+02   0.50000E+00
Ar   0.17527E+02   0.12766E+02   0.50000E+00
Ar   0.18338E+02   0.14129E+02   0.50000E+00
Ar   0.17501E+02   0.15399E+02   0.50000E+00
Ar   0.18242E+02   0.16411E+02   0.50000E+00
Ar   0.17579E+02   0.17859E+02   0.50000E+00
Ar   0.18116E+02   0.19218E+02   0.50000E+00
Ar   0.17455E+02   0.20426E+02   0.50000E+00
Ar   0.18111E+02   0.21749E+02   0.50000E+00
Ar   0.17466E+02   0.23032E+02   0.50000E+00
Ar   0.18239E+02   0.24276E+02   0.50000E+00
Ar   0.17701E+02   0.25607E+02   0.50000E+00
Ar   0.18178E+02   0.27044E+02   0.50000E+00
Ar   0.17426E+02   0.28166E+02   0.50000E+00
Ar   0.18255E+02   0.29375E+02   0.50000E+00
Ar   0.17509E+02   0.30529E+02   0.50000E+00
Ar   0.18124E+02   0.31845E+02   0.50000E+00
Ar   0.17415E+02   0.33080E+02   0.50000E+00
Ar   0.18093E+02   0.34460E+02   0.50000E+00
Ar   0.17253E+02   0.35623E+02   0.50000E+00
Ar   0.17996E+02   0.37044E+02   0.50000E+00
Ar   0.17175E+02   0.38155E+02   0.50000E+00
Ar   0.18119E+02   0.39756E+02   0.50000E+00
Ar   0.19342E+02   0.22444E+00   0.50000E+00
Ar   0.20057E+02   0.15396E+01   0.50000E+00
Ar   0.19283E+02   0.28990E+01   0.50000E+00
Ar   0.20190E+02   0.41940E+01   0.50000E+00
Ar   0.19229E+02   0.52404E+01   0.50000E+00
Ar   0.19891E+02   0.65700E+01   0.50000E+00
Ar   0.19170E+02   0.79027E+01   0.50000E+00
Ar   0.19885E+02   0.91063E+01   0.50000E+00
Ar   0.19100E+02   0.10378E+02   0.50000E+00
Ar   0.19823E+02   0.11530E+02   0.50000E+00
Ar   0.19046E+02   0.12759E+02   0.50000E+00
Ar   0.19816E+02   0.14006E+02   0.50000E+00
Ar   0.19087E+02   0.15226E+02   0.50000E+00
Ar   0.19705E+02   0.16671E+02   0.50000E+00
Ar   0.19036E+02   0.17906E+02   0.50000E+00
Ar   0.19706E+02   0.19092E+02   0.50000E+00
Ar   0.18868E+02   0.20407E+02   0.50000E+00
Ar   0.19539E+02   0.21766E+02   0.50000E+00
Ar   0.18865E+02   0.23018E+02   0.50000E+00
Ar   0.19580E+02   0.24269E+02   0.50000E+00
Ar   0.18954E+02   0.25620E+02   0.50000E+00
Ar   0.19789E+02   0.26741E+02   0.50000E+00
Ar   0.19010E+02   0.28097E+02   0.50000E+00
Ar   0.19769E+02   0.29247E+02   0.50000E+00
Ar   0.18984E+02   0.30618E+02   0.50000E+00
Ar   0.19551E+02   0.31869E+02   0.50000E+00
Ar   0.18749E+02   0.33111E+02   0.50000E+00
Ar   0.19369E+02   0.34539E+02   0.50000E+00
Ar   0.18740E+02   0.35782E+02   0.50000E+00
Ar   0.19461E+02   0.37025E+02   0.50000E+00
Ar   0.18661E+02   0.38381E+02   0.50000E+00
Ar   0.19612E+02   0.39569E+02   0.50000E+00
Ar   0.20614E+02   0.30623E+00   0.50000E+00
Ar   0.21522E+02   0.14722E+01   0.50000E+00
Ar   0.20741E+02   0.28313E+01   0.50000E+00
Ar   0.21429E+02   0.41729E+01   0.50000E+00
Ar   0.20616E+02   0.53326E+01   0.50000E+00
Ar   0.21330E+02   0.67552E+01   0.50000E+00
Ar   0.20592E+02   0.80049E+01   0.50000E+00
Ar   0.21425E+02   0.90335E+01   0.50000E+00
Ar   0.20707E+02   0.10373E+02   0.50000E+00
Ar   0.21278E+02   0.11719E+02   0.50000E+00
Ar   0.20548E+02   0.12839E+02   0.50000E+00
Ar   0.21247E+02   0.14198E+02   0.50000E+00
Ar   0.20510E+02   0.15486E+02   0.50000E+00
Ar   0.21354E+02   0.16689E+02   0.50000E+00
Ar   0.20513E+02   0.17865E+02   0.50000E+00
Ar   0.21069E+02   0.19153E+02   0.50000E+00
Ar   0.20327E+02   0.20530E+02   0.50000E+00
Ar   0.20948E+02   0.21704E+02   0.50000E+00
Ar   0.20289E+02   0.23018E+02   0.50000E+00
Ar   0.21059E+02   0.24114E+02   0.50000E+00
Ar   0.20416E+02   0.25475E+02   0.50000E+00
Ar   0.20990E+02   0.26777E+02   0.50000E+00
Ar   0.20626E+02   0.28050E+02   0.50000E+00
Ar   0.21246E+02   0.29451E+02   0.50000E+00
Ar   0.20473E+02   0.30612E+02   0.50000E+00
Ar   0.21124E+02   0.31944E+02   0.50000E+00
Ar   0.20230E+02   0.33276E+02   0.50000E+00
Ar   0.20928E+02   0.34457E+02   0.50000E+00
Ar   0.20255E+02   0.35779E+02   0.50000E+00
Ar   0.20920E+02   0.37117E+02   0.50000E+00
Ar   0.20106E+02   0.38235E+02   0.50000E+00
Ar   0.20824E+02   0.39597E+02   0.50000E+00
Ar   0.22199E+02   0.13401E+00   0.50000E+00
Ar   0.22949E+02   0.13838E+01   0.50000E+00
Ar   0.22216E+02   0.26922E+01   0.50000E+00
Ar   0.22960E+02   0.40868E+01   0.50000E+00
Ar   0.22022E+02   0.51849E+01   0.50000E+00
Ar   0.22740E+02   0.64562E+01   0.50000E+00
Ar   0.22091E+02   0.77720E+01   0.50000E+00
Ar   0.22723E+02   0.91161E+01   0.50000E+00
Ar   0.22150E+02   0.10386E+02   0.50000E+00
Ar   0.22714E+02   0.11726E+02   0.50000E+00
Ar   0.22026E+02   0.13022E+02   0.50000E+00
Ar   0.22726E+02   0.14271E+02   0.50000E+00
Ar   0.22091E+02   0.15512E+02   0.50000E+00
Ar   0.22864E+02   0.16846E+02   0.50000E+00
Ar   0.22103E+02   0.18053E+02   0.50000E+00
Ar   0.22709E+02   0.19386E+02   0.50000E+00
Ar   0.21810E+02   0.20529E+02   0.50000E+00
Ar   0.22518E+02   0.21631E+02   0.50000E+00
Ar   0.21751E+02   0.22833E+02   0.50000E+00
Ar   0.22520E+02   0.24064E+02   0.50000E+00
Ar   0.21832E+02   0.25402E+02   0.50000E+00
Ar   0.22391E+02   0.26714E+02   0.50000E+00
Ar   0.21937E+02   0.28118E+02   0.50000E+00
Ar   0.22641E+02   0.29447E+02   0.50000E+00
Ar   0.21922E+02   0.30798E+02   0.50000E+00
Ar   0.22744E+02   0.32156E+02   0.50000E+00
Ar   0.21845E+02   0.33198E+02   0.50000E+00
Ar   0.22391E+02   0.34566E+02   0.50000E+00
Ar   0.21795E+02   0.35662E+02   0.50000E+00
Ar   0.22326E+02   0.37024E+02   0.50000E+00
Ar   0.21670E+02   0.38378E+02   0.50000E+00
Ar   0.22469E+02   0.39507E+02   0.50000E+00
Ar   0.23664E+02   0.10538E+00   0.50000E+00
Ar   0.24376E+02   0.14289E+01   0.50000E+00
Ar   0.23676E+02   0.27650E+01   0.50000E+00
Ar   0.24488E+02   0.40884E+01   0.50000E+00
Ar   0.23700E+02   0.53081E+01   0.50000E+00
Ar   0.24261E+02   0.65083E+01   0.50000E+00
Ar   0.23503E+02   0.77558E+01   0.50000E+00
Ar   0.24307E+02   0.89963E+01   0.50000E+00
Ar   0.23660E+02   0.10345E+02   0.50000E+00
Ar   0.24241E+02   0.11672E+02   0.50000E+00
Ar   0.23508E+02   0.12962E+02   0.50000E+00
Ar   0.24255E+02   0.14194E+02   0.50000E+00
Ar   0.23662E+02   0.15539E+02   0.50000E+00
Ar   0.24402E+02   0.16924E+02   0.50000E+00
Ar   0.23566E+02   0.18109E+02   0.50000E+00
Ar   0.24198E+02   0.19085E+02   0.50000E+00
Ar   0.23326E+02   0.20274E+02   0.50000E+00
Ar   0.23989E+02   0.21740E+02   0.50000E+00
Ar   0.23200E+02   0.22958E+02   0.50000E+00
Ar   0.24033E+02   0.24091E+02   0.50000E+00
Ar   0.23291E+02   0.25447E+02   0.50000E+00
Ar   0.23863E+02   0.26737E+02   0.50000E+00
Ar   0.23117E+02   0.28032E+02   0.50000E+00
Ar   0.24064E+02   0.29261E+02   0.50000E+00
Ar   0.23266E+02   0.30731E+02   0.50000E+00
Ar   0.23864E+02   0.32049E+02   0.50000E+00
Ar   0.23331E+02   0.33427E+02   0.50000E+00
Ar   0.23939E+02   0.34350E+02   0.50000E+00
Ar   0.23238E+02   0.35663E+02   0.50000E+00
Ar   0.23897E+02   0.37061E+02   0.50000E+00
Ar   0.23168E+02   0.38304E+02   0.50000E+00
Ar   0.23974E+02   0.39497E+02   0.50000E+00
Ar   0.25164E+02   0.11185E+00   0.50000E+00
Ar   0.25951E+02   0.13384E+01   0.50000E+00
Ar   0.25202E+02   0.27408E+01   0.50000E+00
Ar   0.25947E+02   0.40933E+01   0.50000E+00
Ar   0.25200E+02   0.54007E+01   0.50000E+00
Ar   0.25729E+02   0.67122E+01   0.50000E+00
Ar   0.24976E+02   0.78167E+01   0.50000E+00
Ar   0.25677E+02   0.90119E+01   0.50000E+00
Ar   0.25008E+02   0.10428E+02   0.50000E+00
Ar   0.25867E+02   0.11789E+02   0.50000E+00
Ar   0.25146E+02   0.12957E+02   0.50000E+00
Ar   0.25722E+02   0.14150E+02   0.50000E+00
Ar   0.24776E+02   0.15334E+02   0.50000E+00
Ar   0.25841E+02   0.16512E+02   0.50000E+00
Ar   0.25042E+02   0.17772E+02   0.50000E+00
Ar   0.25674E+02   0.19263E+02   0.50000E+00
Ar   0.24832E+02   0.20503E+02   0.50000E+00
Ar   0.25588E+02   0.21805E+02   0.50000E+00
Ar   0.24748E+02   0.22999E+02   0.50000E+00
Ar   0.25483E+02   0.24266E+02   0.50000E+00
Ar   0.24758E+02   0.25532E+02   0.50000E+00
Ar   0.25522E+02   0.26887E+02   0.50000E+00
Ar   0.24695E+02   0.28015E+02   0.50000E+00
Ar   0.25555E+02   0.29185E+02   0.50000E+00
Ar   0.24711E+02   0.30589E+02   0.50000E+00
Ar   0.25482E+02   0.31857E+02   0.50000E+00
Ar   0.24757E+02   0.33112E+02   0.50000E+00
Ar   0.25375E+02   0.34422E+02   0.50000E+00
Ar   0.24613E+02   0.35682E+02   0.50000E+00
Ar   0.25339E+02   0.36964E+02   0.50000E+00
Ar   0.24629E+02   0.38227E+02   0.50000E+00
Ar   0.25456E+02   0.39522E+02   0.50000E+00
Ar   0.26602E+02   0.70121E-01   0.50000E+00
Ar   0.27315E+02   0.15340E+01   0.50000E+00
Ar   0.26636E+02   0.28341E+01   0.50000E+00
Ar   0.27237E+02   0.41263E+01   0.50000E+00
Ar   0.26479E+02   0.54396E+01   0.50000E+00
Ar   0.27303E+02   0.66809E+01   0.50000E+00
Ar   0.26504E+02   0.78761E+01   0.50000E+00
Ar   0.27219E+02   0.91807E+01   0.50000E+00
Ar   0.26473E+02   0.10391E+02   0.50000E+00
Ar   0.27227E+02   0.11700E+02   0.50000E+00
Ar   0.26553E+02   0.13117E+02   0.50000E+00
Ar   0.27312E+02   0.14249E+02   0.50000E+00
Ar   0.26361E+02   0.15534E+02   0.50000E+00
Ar   0.27075E+02   0.16763E+02   0.50000E+00
Ar   0.26502E+02   0.17990E+02   0.50000E+00
Ar   0.27194E+02   0.19303E+02   0.50000E+00
Ar   0.26302E+02   0.20578E+02   0.50000E+00
Ar   0.27132E+02   0.21841E+02   0.50000E+00
Ar   0.26221E+02   0.22989E+02   0.50000E+00
Ar   0.26926E+02   0.24283E+02   0.50000E+00
Ar   0.26226E+02   0.25550E+02   0.50000E+00
Ar   0.26961E+02   0.26679E+02   0.50000E+00
Ar   0.26246E+02   0.27919E+02   0.50000E+00
Ar   0.26960E+02   0.29203E+02   0.50000E+00
Ar   0.26101E+02   0.30630E+02   0.50000E+00
Ar   0.26979E+02   0.31867E+02   0.50000E+00
Ar   0.26167E+02   0.33255E+02   0.50000E+00
Ar   0.26889E+02   0.34616E+02   0.50000E+00
Ar   0.26192E+02   0.35723E+02   0.50000E+00
Ar   0.26955E+02   0.37146E+02   0.50000E+00
Ar   0.26272E+02   0.38332E+02   0.50000E+00
Ar   0.26965E+02   0.39614E+02   0.50000E+00
Ar   0.28055E+02   0.19993E+00   0.50000E+00
Ar   0.28762E+02   0.14919E+01   0.50000E+00
Ar   0.28067E+02   0.27646E+01   0.50000E+00
Ar   0.28766E+02   0.41047E+01   0.50000E+00
Ar   0.28088E+02   0.53808E+01   0.50000E+00
Ar   0.28899E+02   0.66849E+01   0.50000E+00
Ar   0.28074E+02   0.80039E+01   0.50000E+00
Ar   0.28651E+02   0.93642E+01   0.50000E+00
Ar   0.27987E+02   0.10369E+02   0.50000E+00
Ar   0.28654E+02   0.11449E+02   0.50000E+00
Ar   0.27947E+02   0.12906E+02   0.50000E+00
Ar   0.28806E+02   0.14198E+02   0.50000E+00
Ar   0.27737E+02   0.15499E+02   0.50000E+00
Ar   0.28498E+02   0.16740E+02   0.50000E+00
Ar   0.27921E+02   0.18079E+02   0.50000E+00
Ar   0.28673E+02   0.19397E+02   0.50000E+00
Ar   0.27869E+02   0.20534E+02   0.50000E+00
Ar   0.28570E+02   0.21835E+02   0.50000E+00
Ar   0.27786E+02   0.23115E+02   0.50000E+00
Ar   0.28475E+02   0.24468E+02   0.50000E+00
Ar   0.27651E+02   0.25457E+02   0.50000E+00
Ar   0.28518E+02   0.26643E+02   0.50000E+00
Ar   0.27769E+02   0.27937E+02   0.50000E+00
Ar   0.28339E+02   0.29282E+02   0.50000E+00
Ar   0.27478E+02   0.30577E+02   0.50000E+00
Ar   0.28284E+02   0.31818E+02   0.50000E+00
Ar   0.27593E+02   0.33159E+02   0.50000E+00
Ar   0.28401E+02   0.34406E+02   0.50000E+00
Ar   0.27652E+02   0.35769E+02   0.50000E+00
Ar   0.28311E+02   0.37035E+02   0.50000E+00
Ar   0.27863E+02   0.38453E+02   0.50000E+00
Ar   0.28278E+02   0.39532E+02   0.50000E+00
Ar   0.29477E+02   0.22284E+00   0.50000E+00
Ar   0.30192E+02   0.14769E+01   0.50000E+00
Ar   0.29543E+02   0.28210E+01   0.50000E+00
Ar   0.30236E+02   0.41116E+01   0.50000E+00
Ar   0.29603E+02   0.53555E+01   0.50000E+00
Ar   0.30340E+02   0.67114E+01   0.50000E+00
Ar   0.29588E+02   0.80154E+01   0.50000E+00
Ar   0.30260E+02   0.93813E+01   0.50000E+00
Ar   0.29437E+02   0.10532E+02   0.50000E+00
Ar   0.30106E+02   0.11383E+02   0.50000E+00
Ar   0.29448E+02   0.12838E+02   0.50000E+00
Ar   0.30102E+02   0.14154E+02   0.50000E+00
Ar   0.29319E+02   0.15510E+02   0.50000E+00
Ar   0.30087E+02   0.16833E+02   0.50000E+00
Ar   0.29208E+02   0.18029E+02   0.50000E+00
Ar   0.30049E+02   0.19209E+02   0.50000E+00
Ar   0.29309E+02   0.20566E+02   0.50000E+00
Ar   0.29928E+02   0.21786E+02   0.50000E+00
Ar   0.29269E+02   0.23091E+02   0.50000E+00
Ar   0.29986E+02   0.24365E+02   0.50000E+00
Ar   0.29146E+02   0.25778E+02   0.50000E+00
Ar   0.29982E+02   0.26961E+02   0.50000E+00
Ar   0.29248E+02   0.28032E+02   0.50000E+00